; Include forcefield parameters
#include "amber99sb-ildn.ff/forcefield.itp"

; Include water topology
#include "amber99sb-ildn.ff/tip3p.itp"

#ifdef POSRES_WATER
; Position restraint for each water oxygen
[ position_restraints ]
;  i funct       fcx        fcy        fcz
   1    1       1000       1000       1000
#endif

; Include topology for ions
#include "amber99sb-ildn.ff/ions.itp"
#include "PHD2.itp"

[ system ]
; Name
Protein

[ molecules ]
; Compound        #mols
PHD2               1
Ligand             1
